<signs>
  <sign name="BORN">
    <frame>
      <joint name="SpineBase" x="-0.000519555" y="-0.2493294" z="1.932575" />
      <joint name="SpineMid" x="0.003794728" y="0.07707281" z="1.997519" />
      <joint name="Neck" x="0.00911854" y="0.3913971" z="2.049264" />
      <joint name="Head" x="0.02354089" y="0.5375022" z="2.103592" />
      <joint name="ShoulderLeft" x="-0.1714144" y="0.2613793" z="2.044793" />
      <joint name="ElbowLeft" x="-0.2226853" y="0.08786" z="1.847635" />
      <joint name="WristLeft" x="-0.1140253" y="0.2200135" z="1.734482" />
      <joint name="HandLeft" x="-0.0665282" y="0.2439964" z="1.735552" />
      <joint name="ShoulderRight" x="0.1689768" y="0.2187744" z="2.002534" />
      <joint name="ElbowRight" x="0.2168427" y="0.1022655" z="1.8253" />
      <joint name="WristRight" x="0.05071888" y="0.2641921" z="1.781203" />
      <joint name="HandRight" x="0.01665152" y="0.2900075" z="1.787601" />
      <joint name="HipLeft" x="-0.06601852" y="-0.2422305" z="1.90036" />
      <joint name="KneeLeft" x="-0.1196363" y="-0.596706" z="1.806771" />
      <joint name="AnkleLeft" x="-0.1476" y="-0.9240849" z="1.835124" />
      <joint name="FootLeft" x="-0.1530065" y="-0.9325456" z="1.70684" />
      <joint name="HipRight" x="0.06511217" y="-0.2471428" z="1.893626" />
      <joint name="KneeRight" x="0.1148646" y="-0.6125271" z="1.833168" />
      <joint name="AnkleRight" x="0.1396789" y="-0.9488592" z="1.854043" />
      <joint name="FootRight" x="0.1294439" y="-0.957112" z="1.725851" />
      <joint name="SpineShoulder" x="0.007755692" y="0.314469" z="2.038531" />
      <joint name="HandTipLeft" x="-0.01089303" y="0.2617846" z="1.726101" />
      <joint name="ThumbLeft" x="-0.06399614" y="0.2670893" z="1.738667" />
      <joint name="HandTipRight" x="-0.0382589" y="0.3060661" z="1.795412" />
      <joint name="ThumbRight" x="0.007707248" y="0.2557903" z="1.716572" />
    </frame>
    <frame>
      <joint name="SpineBase" x="-0.0005688682" y="-0.2492705" z="1.932449" />
      <joint name="SpineMid" x="0.003835034" y="0.07697708" z="1.997455" />
      <joint name="Neck" x="0.00925221" y="0.3908926" z="2.04919" />
      <joint name="Head" x="0.02353434" y="0.5375885" z="2.103632" />
      <joint name="ShoulderLeft" x="-0.1717222" y="0.2613927" z="2.044689" />
      <joint name="ElbowLeft" x="-0.221618" y="0.08821669" z="1.847249" />
      <joint name="WristLeft" x="-0.1139481" y="0.2199256" z="1.735264" />
      <joint name="HandLeft" x="-0.06707092" y="0.2433372" z="1.735634" />
      <joint name="ShoulderRight" x="0.1689367" y="0.2187754" z="2.002474" />
      <joint name="ElbowRight" x="0.2170738" y="0.1019963" z="1.825322" />
      <joint name="WristRight" x="0.0518562" y="0.2636724" z="1.781424" />
      <joint name="HandRight" x="0.01827784" y="0.289753" z="1.788329" />
      <joint name="HipLeft" x="-0.06606805" y="-0.242166" z="1.900211" />
      <joint name="KneeLeft" x="-0.1195948" y="-0.5968392" z="1.806556" />
      <joint name="AnkleLeft" x="-0.1475147" y="-0.9242162" z="1.835044" />
      <joint name="FootLeft" x="-0.1529001" y="-0.9326648" z="1.706757" />
      <joint name="HipRight" x="0.06506383" y="-0.2471007" z="1.893538" />
      <joint name="KneeRight" x="0.1148505" y="-0.6125509" z="1.833135" />
      <joint name="AnkleRight" x="0.1398978" y="-0.9492384" z="1.853962" />
      <joint name="FootRight" x="0.1296819" y="-0.9574761" z="1.72577" />
      <joint name="SpineShoulder" x="0.00786805" y="0.3140813" z="2.038458" />
      <joint name="HandTipLeft" x="-0.004482895" y="0.2649992" z="1.731516" />
      <joint name="ThumbLeft" x="-0.05458393" y="0.2746403" z="1.746" />
      <joint name="HandTipRight" x="-0.03929418" y="0.3055407" z="1.79645" />
      <joint name="ThumbRight" x="-0.0006947846" y="0.2605286" z="1.718393" />
    </frame>
    <frame>
      <joint name="SpineBase" x="-0.0005971222" y="-0.249143" z="1.932312" />
      <joint name="SpineMid" x="0.003873487" y="0.07693837" z="1.997407" />
      <joint name="Neck" x="0.009352547" y="0.3905853" z="2.049137" />
      <joint name="Head" x="0.02362005" y="0.5377632" z="2.103905" />
      <joint name="ShoulderLeft" x="-0.1717558" y="0.2614573" z="2.044662" />
      <joint name="ElbowLeft" x="-0.2214461" y="0.08310903" z="1.851871" />
      <joint name="WristLeft" x="-0.1244728" y="0.212226" z="1.736949" />
      <joint name="HandLeft" x="-0.06708669" y="0.2436377" z="1.736672" />
      <joint name="ShoulderRight" x="0.1688494" y="0.2188332" z="2.002425" />
      <joint name="ElbowRight" x="0.2157265" y="0.1035743" z="1.825175" />
      <joint name="WristRight" x="0.05293973" y="0.2632756" z="1.781916" />
      <joint name="HandRight" x="0.01995448" y="0.2901588" z="1.788715" />
      <joint name="HipLeft" x="-0.0660968" y="-0.2420326" z="1.900056" />
      <joint name="KneeLeft" x="-0.1196044" y="-0.5966589" z="1.806439" />
      <joint name="AnkleLeft" x="-0.1475441" y="-0.9241988" z="1.834938" />
      <joint name="FootLeft" x="-0.1529313" y="-0.932638" z="1.70665" />
      <joint name="HipRight" x="0.06503346" y="-0.2469979" z="1.893438" />
      <joint name="KneeRight" x="0.1148426" y="-0.6125548" z="1.833133" />
      <joint name="AnkleRight" x="0.1400416" y="-0.9519033" z="1.854222" />
      <joint name="FootRight" x="0.1298225" y="-0.9600986" z="1.726046" />
      <joint name="SpineShoulder" x="0.007955686" y="0.3138531" z="2.038406" />
      <joint name="HandTipLeft" x="-0.01706178" y="0.2669541" z="1.72858" />
      <joint name="ThumbLeft" x="-0.07188709" y="0.2653549" z="1.74225" />
      <joint name="HandTipRight" x="-0.03929359" y="0.3048693" z="1.795033" />
      <joint name="ThumbRight" x="-0.002815068" y="0.2602508" z="1.717981" />
    </frame>
    <frame>
      <joint name="SpineBase" x="-0.0006464308" y="-0.2490769" z="1.932219" />
      <joint name="SpineMid" x="0.003870598" y="0.07727736" z="1.997494" />
      <joint name="Neck" x="0.009305561" y="0.3917067" z="2.049727" />
      <joint name="Head" x="0.02362055" y="0.5378171" z="2.103946" />
      <joint name="ShoulderLeft" x="-0.1711813" y="0.2619314" z="2.044677" />
      <joint name="ElbowLeft" x="-0.2219931" y="0.08321892" z="1.851413" />
      <joint name="WristLeft" x="-0.1110182" y="0.2150371" z="1.73292" />
      <joint name="HandLeft" x="-0.04955724" y="0.2501591" z="1.739961" />
      <joint name="ShoulderRight" x="0.1687866" y="0.2187961" z="2.002361" />
      <joint name="ElbowRight" x="0.2147563" y="0.1034626" z="1.825368" />
      <joint name="WristRight" x="0.05397692" y="0.2629448" z="1.782478" />
      <joint name="HandRight" x="0.1158835" y="0.2149397" z="1.796402" />
      <joint name="HipLeft" x="-0.06615949" y="-0.2418999" z="1.899945" />
      <joint name="KneeLeft" x="-0.1195262" y="-0.5961201" z="1.806263" />
      <joint name="AnkleLeft" x="-0.14758" y="-0.9242589" z="1.83493" />
      <joint name="FootLeft" x="-0.1529563" y="-0.9326814" z="1.706639" />
      <joint name="HipRight" x="0.06499228" y="-0.2469851" z="1.893367" />
      <joint name="KneeRight" x="0.1148434" y="-0.6125872" z="1.83313" />
      <joint name="AnkleRight" x="0.1400783" y="-0.9520912" z="1.854441" />
      <joint name="FootRight" x="0.1298691" y="-0.9602697" z="1.726261" />
      <joint name="SpineShoulder" x="0.007931556" y="0.3147058" z="2.038833" />
      <joint name="HandTipLeft" x="0.01654985" y="0.2589259" z="1.730123" />
      <joint name="ThumbLeft" x="-0.04598549" y="0.2945033" z="1.775769" />
      <joint name="HandTipRight" x="0.04589055" y="0.2761957" z="1.780096" />
      <joint name="ThumbRight" x="0.04470908" y="0.2457487" z="1.723" />
    </frame>
    <frame>
      <joint name="SpineBase" x="-0.0006613895" y="-0.2490041" z="1.932147" />
      <joint name="SpineMid" x="0.003924141" y="0.07717203" z="1.997425" />
      <joint name="Neck" x="0.009456817" y="0.3910106" z="2.049525" />
      <joint name="Head" x="0.02368285" y="0.5378764" z="2.103971" />
      <joint name="ShoulderLeft" x="-0.1713086" y="0.2619971" z="2.044667" />
      <joint name="ElbowLeft" x="-0.2224729" y="0.08322547" z="1.851165" />
      <joint name="WristLeft" x="-0.1110069" y="0.2151659" z="1.732982" />
      <joint name="HandLeft" x="-0.06591415" y="0.2431469" z="1.736097" />
      <joint name="ShoulderRight" x="0.1688092" y="0.218721" z="2.002298" />
      <joint name="ElbowRight" x="0.2149384" y="0.1035949" z="1.825381" />
      <joint name="WristRight" x="0.05422318" y="0.2628547" z="1.782739" />
      <joint name="HandRight" x="0.02116026" y="0.2896117" z="1.788805" />
      <joint name="HipLeft" x="-0.06618125" y="-0.2418423" z="1.899856" />
      <joint name="KneeLeft" x="-0.1195266" y="-0.5961117" z="1.806254" />
      <joint name="AnkleLeft" x="-0.1474633" y="-0.9256203" z="1.834391" />
      <joint name="FootLeft" x="-0.1528393" y="-0.9340164" z="1.706109" />
      <joint name="HipRight" x="0.06498066" y="-0.2469091" z="1.893322" />
      <joint name="KneeRight" x="0.1148385" y="-0.6125931" z="1.833106" />
      <joint name="AnkleRight" x="0.1395044" y="-0.9460148" z="1.854729" />
      <joint name="FootRight" x="0.1293044" y="-0.954271" z="1.726505" />
      <joint name="SpineShoulder" x="0.008060331" y="0.3141979" z="2.038678" />
      <joint name="HandTipLeft" x="-0.01182743" y="0.2661319" z="1.730026" />
      <joint name="ThumbLeft" x="-0.06321421" y="0.2675688" z="1.740429" />
      <joint name="HandTipRight" x="-0.03546467" y="0.3040892" z="1.792631" />
      <joint name="ThumbRight" x="0.01288148" y="0.2551377" z="1.7174" />
    </frame>
    <frame>
      <joint name="SpineBase" x="-0.0006025227" y="-0.2493422" z="1.931795" />
      <joint name="SpineMid" x="0.004095642" y="0.07673791" z="1.997166" />
      <joint name="Neck" x="0.009627116" y="0.3904935" z="2.049315" />
      <joint name="Head" x="0.02369594" y="0.5379217" z="2.103941" />
      <joint name="ShoulderLeft" x="-0.1484597" y="0.2524344" z="2.032358" />
      <joint name="ElbowLeft" x="-0.2226517" y="0.08296109" z="1.850876" />
      <joint name="WristLeft" x="-0.1113229" y="0.2154858" z="1.733549" />
      <joint name="HandLeft" x="-0.06670986" y="0.2424069" z="1.734862" />
      <joint name="ShoulderRight" x="0.1688336" y="0.2182859" z="2.002015" />
      <joint name="ElbowRight" x="0.215249" y="0.1024876" z="1.825262" />
      <joint name="WristRight" x="0.05442711" y="0.2628082" z="1.782794" />
      <joint name="HandRight" x="0.0206804" y="0.2915166" z="1.790547" />
      <joint name="HipLeft" x="-0.06620944" y="-0.2421096" z="1.899563" />
      <joint name="KneeLeft" x="-0.1195025" y="-0.5960082" z="1.806178" />
      <joint name="AnkleLeft" x="-0.1473854" y="-0.9253089" z="1.83426" />
      <joint name="FootLeft" x="-0.1573968" y="-1.008789" z="1.769503" />
      <joint name="HipRight" x="0.06513397" y="-0.2473283" z="1.89292" />
      <joint name="KneeRight" x="0.1147856" y="-0.6125129" z="1.833057" />
      <joint name="AnkleRight" x="0.1398408" y="-0.9477979" z="1.854431" />
      <joint name="FootRight" x="0.131731" y="-0.9559947" z="1.726066" />
      <joint name="SpineShoulder" x="0.008237514" y="0.3136856" z="2.038462" />
      <joint name="HandTipLeft" x="-0.00132321" y="0.2632971" z="1.728585" />
      <joint name="ThumbLeft" x="-0.05058655" y="0.2752743" z="1.745" />
      <joint name="HandTipRight" x="-0.03265263" y="0.308562" z="1.801463" />
      <joint name="ThumbRight" x="0.005412663" y="0.2588582" z="1.718286" />
    </frame>
    <frame>
      <joint name="SpineBase" x="-0.000654205" y="-0.2498329" z="1.931528" />
      <joint name="SpineMid" x="0.004191587" y="0.07637939" z="1.99704" />
      <joint name="Neck" x="0.009747057" y="0.3902486" z="2.049257" />
      <joint name="Head" x="0.02369462" y="0.5379229" z="2.103926" />
      <joint name="ShoulderLeft" x="-0.1485644" y="0.2525097" z="2.03254" />
      <joint name="ElbowLeft" x="-0.2228612" y="0.08278939" z="1.850882" />
      <joint name="WristLeft" x="-0.111321" y="0.2156735" z="1.733176" />
      <joint name="HandLeft" x="-0.06769709" y="0.2421027" z="1.735173" />
      <joint name="ShoulderRight" x="0.168293" y="0.2138436" z="1.999616" />
      <joint name="ElbowRight" x="0.2155214" y="0.1024351" z="1.825445" />
      <joint name="WristRight" x="0.05479243" y="0.2626846" z="1.782862" />
      <joint name="HandRight" x="0.02169446" y="0.290284" z="1.789654" />
      <joint name="HipLeft" x="-0.06625431" y="-0.2425183" z="1.899268" />
      <joint name="KneeLeft" x="-0.1195161" y="-0.5963321" z="1.806218" />
      <joint name="AnkleLeft" x="-0.1473891" y="-0.925302" z="1.834252" />
      <joint name="FootLeft" x="-0.1573787" y="-1.008608" z="1.769444" />
      <joint name="HipRight" x="0.06506516" y="-0.2479066" z="1.892698" />
      <joint name="KneeRight" x="0.1147671" y="-0.6124474" z="1.833018" />
      <joint name="AnkleRight" x="0.1393896" y="-0.9466699" z="1.854555" />
      <joint name="FootRight" x="0.1309189" y="-0.9548798" z="1.726204" />
      <joint name="SpineShoulder" x="0.008357363" y="0.313404" z="2.038394" />
      <joint name="HandTipLeft" x="-0.01628056" y="0.266556" z="1.729414" />
      <joint name="ThumbLeft" x="-0.06571153" y="0.2661063" z="1.7388" />
      <joint name="HandTipRight" x="-0.03652411" y="0.3027526" z="1.791148" />
      <joint name="ThumbRight" x="-0.001005259" y="0.2637091" z="1.720087" />
    </frame>
    <frame>
      <joint name="SpineBase" x="-0.0008486473" y="-0.2497902" z="1.931434" />
      <joint name="SpineMid" x="0.004177084" y="0.07627445" z="1.99697" />
      <joint name="Neck" x="0.009888356" y="0.3897933" z="2.049088" />
      <joint name="Head" x="0.02371211" y="0.5379447" z="2.103904" />
      <joint name="ShoulderLeft" x="-0.1617896" y="0.2587876" z="2.03925" />
      <joint name="ElbowLeft" x="-0.2238099" y="0.08376144" z="1.849576" />
      <joint name="WristLeft" x="-0.06924749" y="0.240709" z="1.741518" />
      <joint name="HandLeft" x="-0.06134827" y="0.2447874" z="1.737638" />
      <joint name="ShoulderRight" x="0.168249" y="0.2124072" z="1.998431" />
      <joint name="ElbowRight" x="0.2159878" y="0.1021376" z="1.825247" />
      <joint name="WristRight" x="0.04533459" y="0.2645125" z="1.777744" />
      <joint name="HandRight" x="0.01163801" y="0.2879435" z="1.782879" />
      <joint name="HipLeft" x="-0.06640204" y="-0.2424597" z="1.899169" />
      <joint name="KneeLeft" x="-0.1195399" y="-0.5963694" z="1.806202" />
      <joint name="AnkleLeft" x="-0.1473188" y="-0.9257224" z="1.834388" />
      <joint name="FootLeft" x="-0.1573928" y="-1.008534" z="1.769488" />
      <joint name="HipRight" x="0.06481275" y="-0.2478875" z="1.89262" />
      <joint name="KneeRight" x="0.1148099" y="-0.6126158" z="1.833017" />
      <joint name="AnkleRight" x="0.1396681" y="-0.9478934" z="1.854337" />
      <joint name="FootRight" x="0.1298985" y="-0.9560977" z="1.726088" />
      <joint name="SpineShoulder" x="0.00844689" y="0.3130519" z="2.03826" />
      <joint name="HandTipLeft" x="-0.003810393" y="0.2641847" z="1.731418" />
      <joint name="ThumbLeft" x="-0.04900968" y="0.2779702" z="1.751" />
      <joint name="HandTipRight" x="-0.04329662" y="0.3047213" z="1.793379" />
      <joint name="ThumbRight" x="-0.02045922" y="0.2668386" z="1.72055" />
    </frame>
    <frame>
      <joint name="SpineBase" x="-0.0008921919" y="-0.2498024" z="1.931201" />
      <joint name="SpineMid" x="0.004233334" y="0.07597937" z="1.996667" />
      <joint name="Neck" x="0.01001182" y="0.3890277" z="2.048625" />
      <joint name="Head" x="0.02368342" y="0.5379484" z="2.103748" />
      <joint name="ShoulderLeft" x="-0.16224" y="0.2588685" z="2.039519" />
      <joint name="ElbowLeft" x="-0.223841" y="0.08365616" z="1.849496" />
      <joint name="WristLeft" x="-0.0691006" y="0.2407471" z="1.741403" />
      <joint name="HandLeft" x="-0.06150155" y="0.2453288" z="1.736026" />
      <joint name="ShoulderRight" x="0.1679922" y="0.2114128" z="1.99753" />
      <joint name="ElbowRight" x="0.2159251" y="0.10216" z="1.825099" />
      <joint name="WristRight" x="0.04967787" y="0.2636434" z="1.779217" />
      <joint name="HandRight" x="0.01651509" y="0.2887907" z="1.784104" />
      <joint name="HipLeft" x="-0.06644518" y="-0.242435" z="1.898797" />
      <joint name="KneeLeft" x="-0.1195212" y="-0.5963933" z="1.806153" />
      <joint name="AnkleLeft" x="-0.1473225" y="-0.9258308" z="1.834304" />
      <joint name="FootLeft" x="-0.1575389" y="-1.008778" z="1.769417" />
      <joint name="HipRight" x="0.06477121" y="-0.247922" z="1.8925" />
      <joint name="KneeRight" x="0.1147937" y="-0.6127968" z="1.832886" />
      <joint name="AnkleRight" x="0.1398555" y="-0.9480106" z="1.853791" />
      <joint name="FootRight" x="0.1298544" y="-0.9562128" z="1.725564" />
      <joint name="SpineShoulder" x="0.008557119" y="0.3124087" z="2.037844" />
      <joint name="HandTipLeft" x="0.001032295" y="0.2643933" z="1.730584" />
      <joint name="ThumbLeft" x="-0.05123697" y="0.2776645" z="1.750602" />
      <joint name="HandTipRight" x="-0.03890499" y="0.3053441" z="1.795012" />
      <joint name="ThumbRight" x="-0.02064645" y="0.2693579" z="1.720556" />
    </frame>
    <frame>
      <joint name="SpineBase" x="-0.0009831949" y="-0.2498177" z="1.931172" />
      <joint name="SpineMid" x="0.004224326" y="0.07583982" z="1.99661" />
      <joint name="Neck" x="0.01008758" y="0.3886681" z="2.048489" />
      <joint name="Head" x="0.02368032" y="0.5379612" z="2.103745" />
      <joint name="ShoulderLeft" x="-0.1644033" y="0.2598272" z="2.040404" />
      <joint name="ElbowLeft" x="-0.2225689" y="0.08568344" z="1.847999" />
      <joint name="WristLeft" x="-0.1024659" y="0.2137347" z="1.727293" />
      <joint name="HandLeft" x="-0.04797261" y="0.2496263" z="1.73923" />
      <joint name="ShoulderRight" x="0.1680155" y="0.2110358" z="1.997334" />
      <joint name="ElbowRight" x="0.2160579" y="0.1021403" z="1.825122" />
      <joint name="WristRight" x="0.05148824" y="0.2633858" z="1.780312" />
      <joint name="HandRight" x="0.1071237" y="0.2245531" z="1.796069" />
      <joint name="HipLeft" x="-0.06649628" y="-0.2424278" z="1.898774" />
      <joint name="KneeLeft" x="-0.1195366" y="-0.5963867" z="1.806164" />
      <joint name="AnkleLeft" x="-0.1473673" y="-0.9258486" z="1.834357" />
      <joint name="FootLeft" x="-0.1574498" y="-1.008695" z="1.76976" />
      <joint name="HipRight" x="0.06462025" y="-0.2479772" z="1.892472" />
      <joint name="KneeRight" x="0.1148032" y="-0.6127769" z="1.83289" />
      <joint name="AnkleRight" x="0.1395247" y="-0.9469486" z="1.854158" />
      <joint name="FootRight" x="0.1293917" y="-0.955169" z="1.725934" />
      <joint name="SpineShoulder" x="0.008609594" y="0.3121002" z="2.037734" />
      <joint name="HandTipLeft" x="0.01894213" y="0.2605246" z="1.732971" />
      <joint name="ThumbLeft" x="-0.04726958" y="0.2933104" z="1.77025" />
      <joint name="HandTipRight" x="0.04187698" y="0.2851064" z="1.78662" />
      <joint name="ThumbRight" x="0.04482405" y="0.2493562" z="1.7234" />
    </frame>
    <frame>
      <joint name="SpineBase" x="-0.001038812" y="-0.2499442" z="1.931083" />
      <joint name="SpineMid" x="0.004301377" y="0.07550998" z="1.99649" />
      <joint name="Neck" x="0.01029009" y="0.3881518" z="2.04834" />
      <joint name="Head" x="0.02364586" y="0.538011" z="2.1037" />
      <joint name="ShoulderLeft" x="-0.1644472" y="0.2598163" z="2.040491" />
      <joint name="ElbowLeft" x="-0.2226995" y="0.08556398" z="1.848001" />
      <joint name="WristLeft" x="-0.0664693" y="0.2395176" z="1.739048" />
      <joint name="HandLeft" x="-0.06114868" y="0.2458977" z="1.737308" />
      <joint name="ShoulderRight" x="0.1677061" y="0.2103209" z="1.996804" />
      <joint name="ElbowRight" x="0.2164862" y="0.1018792" z="1.824859" />
      <joint name="WristRight" x="0.05267137" y="0.2630216" z="1.780844" />
      <joint name="HandRight" x="0.01841548" y="0.2897323" z="1.786878" />
      <joint name="HipLeft" x="-0.0665438" y="-0.2425538" z="1.898655" />
      <joint name="KneeLeft" x="-0.1195413" y="-0.5963603" z="1.806117" />
      <joint name="AnkleLeft" x="-0.1473933" y="-0.925651" z="1.834448" />
      <joint name="FootLeft" x="-0.1574379" y="-1.008016" z="1.769618" />
      <joint name="HipRight" x="0.06455546" y="-0.248105" z="1.892418" />
      <joint name="KneeRight" x="0.1148159" y="-0.6128071" z="1.832865" />
      <joint name="AnkleRight" x="0.1397064" y="-0.9476703" z="1.854159" />
      <joint name="FootRight" x="0.1294549" y="-0.9558799" z="1.725949" />
      <joint name="SpineShoulder" x="0.008784104" y="0.3116162" z="2.037595" />
      <joint name="HandTipLeft" x="-0.002905146" y="0.2650904" z="1.73205" />
      <joint name="ThumbLeft" x="-0.04764896" y="0.2804866" z="1.753572" />
      <joint name="HandTipRight" x="-0.03891782" y="0.3059781" z="1.794945" />
      <joint name="ThumbRight" x="0.0005384911" y="0.2602313" z="1.718572" />
    </frame>
    <frame>
      <joint name="SpineBase" x="-0.001043019" y="-0.2499497" z="1.931082" />
      <joint name="SpineMid" x="0.004312379" y="0.07541539" z="1.996451" />
      <joint name="Neck" x="0.01028835" y="0.3879495" z="2.04822" />
      <joint name="Head" x="0.02363835" y="0.5380024" z="2.103706" />
      <joint name="ShoulderLeft" x="-0.1659785" y="0.2602406" z="2.040944" />
      <joint name="ElbowLeft" x="-0.2234973" y="0.08635893" z="1.847198" />
      <joint name="WristLeft" x="-0.1088412" y="0.2189426" z="1.734317" />
      <joint name="HandLeft" x="-0.0480135" y="0.2510212" z="1.740602" />
      <joint name="ShoulderRight" x="0.167705" y="0.2102391" z="1.99667" />
      <joint name="ElbowRight" x="0.2167358" y="0.1020149" z="1.824763" />
      <joint name="WristRight" x="0.05364426" y="0.2628529" z="1.781399" />
      <joint name="HandRight" x="0.110615" y="0.2208157" z="1.794464" />
      <joint name="HipLeft" x="-0.06653788" y="-0.2425583" z="1.89865" />
      <joint name="KneeLeft" x="-0.1194972" y="-0.5964648" z="1.806098" />
      <joint name="AnkleLeft" x="-0.1473484" y="-0.9258083" z="1.834523" />
      <joint name="FootLeft" x="-0.1574297" y="-1.007987" z="1.769616" />
      <joint name="HipRight" x="0.06452226" y="-0.2481231" z="1.892428" />
      <joint name="KneeRight" x="0.1148223" y="-0.6126822" z="1.832824" />
      <joint name="AnkleRight" x="0.1401168" y="-0.9487746" z="1.854008" />
      <joint name="FootRight" x="0.1297753" y="-0.9569723" z="1.725813" />
      <joint name="SpineShoulder" x="0.008789329" y="0.3114363" z="2.037501" />
      <joint name="HandTipLeft" x="0.01602949" y="0.2614234" z="1.733825" />
      <joint name="ThumbLeft" x="-0.04481391" y="0.2945371" z="1.773693" />
      <joint name="HandTipRight" x="0.0394881" y="0.2806746" z="1.780738" />
      <joint name="ThumbRight" x="0.04261197" y="0.2491115" z="1.722833" />
    </frame>
    <frame>
      <joint name="SpineBase" x="-0.001057043" y="-0.2499519" z="1.931069" />
      <joint name="SpineMid" x="0.004350282" y="0.07526861" z="1.996372" />
      <joint name="Neck" x="0.01039788" y="0.3875581" z="2.048021" />
      <joint name="Head" x="0.02361503" y="0.538002" z="2.103692" />
      <joint name="ShoulderLeft" x="-0.1677493" y="0.260813" z="2.041963" />
      <joint name="ElbowLeft" x="-0.222432" y="0.08789428" z="1.846595" />
      <joint name="WristLeft" x="-0.111545" y="0.2230288" z="1.744065" />
      <joint name="HandLeft" x="-0.06426197" y="0.2469059" z="1.737874" />
      <joint name="ShoulderRight" x="0.1678361" y="0.2100189" z="1.996576" />
      <joint name="ElbowRight" x="0.2170375" y="0.1018808" z="1.824748" />
      <joint name="WristRight" x="0.05408214" y="0.2627151" z="1.78142" />
      <joint name="HandRight" x="0.02037131" y="0.2892522" z="1.785039" />
      <joint name="HipLeft" x="-0.06654619" y="-0.2425584" z="1.898581" />
      <joint name="KneeLeft" x="-0.1194711" y="-0.5962951" z="1.806134" />
      <joint name="AnkleLeft" x="-0.1473929" y="-0.9259483" z="1.83459" />
      <joint name="FootLeft" x="-0.1573532" y="-1.007976" z="1.76942" />
      <joint name="HipRight" x="0.06448794" y="-0.2481302" z="1.892447" />
      <joint name="KneeRight" x="0.1148211" y="-0.6126679" z="1.832828" />
      <joint name="AnkleRight" x="0.1401925" y="-0.9491194" z="1.854021" />
      <joint name="FootRight" x="0.1296585" y="-0.9573181" z="1.725846" />
      <joint name="SpineShoulder" x="0.008882193" y="0.3111047" z="2.037338" />
      <joint name="HandTipLeft" x="-0.008738585" y="0.2679667" z="1.732413" />
      <joint name="ThumbLeft" x="-0.05553099" y="0.27832" z="1.750889" />
      <joint name="HandTipRight" x="-0.03592341" y="0.3031979" z="1.791823" />
      <joint name="ThumbRight" x="-0.01894078" y="0.2706216" z="1.723143" />
    </frame>
    <frame>
      <joint name="SpineBase" x="-0.001087525" y="-0.2499343" z="1.931078" />
      <joint name="SpineMid" x="0.004352076" y="0.07524583" z="1.996365" />
      <joint name="Neck" x="0.01041612" y="0.3874785" z="2.047981" />
      <joint name="Head" x="0.02361367" y="0.5380161" z="2.10368" />
      <joint name="ShoulderLeft" x="-0.1686357" y="0.2610754" z="2.042386" />
      <joint name="ElbowLeft" x="-0.2228893" y="0.08771504" z="1.847115" />
      <joint name="WristLeft" x="-0.1095465" y="0.2208696" z="1.747402" />
      <joint name="HandLeft" x="-0.06220377" y="0.2497761" z="1.740288" />
      <joint name="ShoulderRight" x="0.1679273" y="0.209809" z="1.996529" />
      <joint name="ElbowRight" x="0.2174508" y="0.1021285" z="1.824635" />
      <joint name="WristRight" x="0.05469295" y="0.2624506" z="1.78133" />
      <joint name="HandRight" x="0.01988084" y="0.2878244" z="1.782419" />
      <joint name="HipLeft" x="-0.06656208" y="-0.2425501" z="1.898579" />
      <joint name="KneeLeft" x="-0.1194396" y="-0.5964017" z="1.806114" />
      <joint name="AnkleLeft" x="-0.1473143" y="-0.9271584" z="1.834758" />
      <joint name="FootLeft" x="-0.1573766" y="-1.007939" z="1.769392" />
      <joint name="HipRight" x="0.06443485" y="-0.2480991" z="1.892481" />
      <joint name="KneeRight" x="0.1148499" y="-0.6127384" z="1.832877" />
      <joint name="AnkleRight" x="0.1403134" y="-0.9501029" z="1.853611" />
      <joint name="FootRight" x="0.1297121" y="-0.9582874" z="1.725452" />
      <joint name="SpineShoulder" x="0.008896828" y="0.3110372" z="2.037309" />
      <joint name="HandTipLeft" x="-0.008057013" y="0.2724104" z="1.736659" />
      <joint name="ThumbLeft" x="-0.05349603" y="0.284848" z="1.760846" />
      <joint name="HandTipRight" x="-0.0376668" y="0.3019019" z="1.790652" />
      <joint name="ThumbRight" x="0.003870528" y="0.2578247" z="1.717781" />
    </frame>
    <frame>
      <joint name="SpineBase" x="-0.001100517" y="-0.2499282" z="1.931058" />
      <joint name="SpineMid" x="0.00421908" y="0.07519525" z="1.996367" />
      <joint name="Neck" x="0.009846251" y="0.3873371" z="2.048093" />
      <joint name="Head" x="0.02360911" y="0.538003" z="2.103654" />
      <joint name="ShoulderLeft" x="-0.1705665" y="0.2608019" z="2.042412" />
      <joint name="ElbowLeft" x="-0.2212933" y="0.08808435" z="1.847461" />
      <joint name="WristLeft" x="-0.1167627" y="0.2233843" z="1.746996" />
      <joint name="HandLeft" x="-0.06680954" y="0.2496118" z="1.739847" />
      <joint name="ShoulderRight" x="0.1679637" y="0.2096025" z="1.996378" />
      <joint name="ElbowRight" x="0.2176078" y="0.1019465" z="1.824632" />
      <joint name="WristRight" x="0.0558343" y="0.262196" z="1.780565" />
      <joint name="HandRight" x="0.01880479" y="0.2885545" z="1.780513" />
      <joint name="HipLeft" x="-0.0665695" y="-0.2425288" z="1.898547" />
      <joint name="KneeLeft" x="-0.1194654" y="-0.5963911" z="1.80607" />
      <joint name="AnkleLeft" x="-0.1473248" y="-0.9262389" z="1.834893" />
      <joint name="FootLeft" x="-0.1573739" y="-1.007643" z="1.769027" />
      <joint name="HipRight" x="0.06441648" y="-0.2481046" z="1.892469" />
      <joint name="KneeRight" x="0.1149384" y="-0.6126717" z="1.832837" />
      <joint name="AnkleRight" x="0.1398892" y="-0.9485794" z="1.853375" />
      <joint name="FootRight" x="0.129292" y="-0.9567772" z="1.725205" />
      <joint name="SpineShoulder" x="0.008468525" y="0.3109147" z="2.037386" />
      <joint name="HandTipLeft" x="-0.01303911" y="0.2749507" z="1.737806" />
      <joint name="ThumbLeft" x="-0.05698912" y="0.2840902" z="1.757641" />
      <joint name="HandTipRight" x="-0.03420512" y="0.3038068" z="1.790024" />
      <joint name="ThumbRight" x="0.002390145" y="0.2596643" z="1.71861" />
    </frame>
    <frame>
      <joint name="SpineBase" x="-0.001094043" y="-0.2499244" z="1.931049" />
      <joint name="SpineMid" x="0.004164371" y="0.07531109" z="1.996429" />
      <joint name="Neck" x="0.009466646" y="0.3879672" z="2.048455" />
      <joint name="Head" x="0.02364234" y="0.5380321" z="2.103651" />
      <joint name="ShoulderLeft" x="-0.1715034" y="0.2606999" z="2.04236" />
      <joint name="ElbowLeft" x="-0.2208559" y="0.0899525" z="1.845849" />
      <joint name="WristLeft" x="-0.1146995" y="0.2239324" z="1.746986" />
      <joint name="HandLeft" x="-0.06455577" y="0.2535855" z="1.743956" />
      <joint name="ShoulderRight" x="0.167824" y="0.2093564" z="1.996303" />
      <joint name="ElbowRight" x="0.2184553" y="0.1015443" z="1.824353" />
      <joint name="WristRight" x="0.05753357" y="0.2619508" z="1.779828" />
      <joint name="HandRight" x="0.01960105" y="0.2871036" z="1.776496" />
      <joint name="HipLeft" x="-0.06655879" y="-0.242526" z="1.898539" />
      <joint name="KneeLeft" x="-0.1194869" y="-0.5963513" z="1.806059" />
      <joint name="AnkleLeft" x="-0.1473442" y="-0.9264283" z="1.834943" />
      <joint name="FootLeft" x="-0.1576032" y="-1.007334" z="1.76952" />
      <joint name="HipRight" x="0.0644189" y="-0.2481011" z="1.892464" />