<signs>
  <sign name="BORN">
    <frame>
      <joint name="SpineBase" x="970.821166992188" y="678.950805664063" z="532.160412060757" />
      <joint name="SpineMid" x="974.028747558594" y="500.331237792969" z="550.043620412904" />
      <joint name="Neck" x="977.686706542969" y="337.750885009766" z="564.29228225141" />
      <joint name="Head" x="984.870544433594" y="268.847412109375" z="579.252215145872" />
      <joint name="ShoulderLeft" x="882.858947753906" y="404.193084716797" z="563.061114989794" />
      <joint name="ElbowLeft" x="845.782104492188" y="489.397918701172" z="508.771057115295" />
      <joint name="WristLeft" x="907.075012207031" y="405.443572998047" z="477.612868024041" />
      <joint name="HandLeft" x="936.44970703125" y="391.090209960938" z="477.907480250698" />
      <joint name="ShoulderRight" x="1062.73168945313" y="425.901519775391" z="551.424539315523" />
      <joint name="ElbowRight" x="1101.59375" y="483.048034667969" z="502.620801205938" />
      <joint name="WristRight" x="1006.99273681641" y="383.584411621094" z="490.478116193439" />
      <joint name="HandRight" x="986.585144042969" y="368.520690917969" z="492.239880895911" />
      <joint name="HipLeft" x="934.560363769531" y="676.9140625" z="523.289580470831" />
      <joint name="KneeLeft" x="900.172119140625" y="893.175964355469" z="497.51860982836" />
      <joint name="AnkleLeft" x="882.362548828125" y="1079.12939453125" z="505.32598155121" />
      <joint name="FootLeft" x="874.260375976563" y="1125.212890625" z="470.001269818715" />
      <joint name="HipRight" x="1008.36773681641" y="680.941162109375" z="521.435279627195" />
      <joint name="KneeRight" x="1037.23266601563" y="898.7763671875" z="504.787374596893" />
      <joint name="AnkleRight" x="1048.38806152344" y="1089.75122070313" z="510.535579191253" />
      <joint name="FootRight" x="1049.78295898438" y="1135.93640136719" z="475.236209034132" />
      <joint name="SpineShoulder" x="976.74658203125" y="376.967712402344" z="561.336837436385" />
      <joint name="HandTipLeft" x="970.917114257813" y="379.629760742188" z="475.305044893664" />
      <joint name="ThumbLeft" x="938.157531738281" y="377.199645996094" z="478.765253186049" />
      <joint name="HandTipRight" x="953.854858398438" y="359.380432128906" z="494.39073069282" />
      <joint name="ThumbRight" x="982.594909667969" y="382.579681396484" z="472.681108588613" />
    </frame>
    <frame>
      <joint name="SpineBase" x="970.796081542969" y="678.927001953125" z="532.125715111055" />
      <joint name="SpineMid" x="974.05078125" y="500.381195068359" z="550.025992918117" />
      <joint name="Neck" x="977.754821777344" y="338.007202148438" z="564.271930209011" />
      <joint name="Head" x="984.866821289063" y="268.808715820313" z="579.263244639817" />
      <joint name="ShoulderLeft" x="882.695251464844" y="404.177398681641" z="563.032490826937" />
      <joint name="ElbowLeft" x="846.38037109375" y="489.187622070313" z="508.664766932574" />
      <joint name="WristLeft" x="907.138305664063" y="405.559417724609" z="477.828172937093" />
      <joint name="HandLeft" x="936.112365722656" y="391.499145507813" z="477.930064452585" />
      <joint name="ShoulderRight" x="1062.7138671875" y="425.897216796875" z="551.408060726356" />
      <joint name="ElbowRight" x="1101.72546386719" y="483.207458496094" z="502.626873992783" />
      <joint name="WristRight" x="1007.66302490234" y="383.922485351563" z="490.538975365386" />
      <joint name="HandRight" x="987.536499023438" y="368.753265380859" z="492.440348513538" />
      <joint name="HipLeft" x="934.5322265625" y="676.888244628906" z="523.248548127286" />
      <joint name="KneeLeft" x="900.190612792969" y="893.297119140625" z="497.459391950155" />
      <joint name="AnkleLeft" x="882.408569335938" y="1079.23071289063" z="505.303955389195" />
      <joint name="FootLeft" x="874.322631835938" y="1125.31762695313" z="469.978390183954" />
      <joint name="HipRight" x="1008.34375" y="680.923645019531" z="521.411054131566" />
      <joint name="KneeRight" x="1037.22595214844" y="898.796630859375" z="504.778281829564" />
      <joint name="AnkleRight" x="1048.51647949219" y="1089.99743652344" z="510.513257596364" />
      <joint name="FootRight" x="1049.9326171875" y="1136.19409179688" z="475.213887439244" />
      <joint name="SpineShoulder" x="976.804504394531" y="377.165466308594" z="561.316748000986" />
      <joint name="HandTipLeft" x="974.801696777344" y="378.196166992188" z="476.796127432235" />
      <joint name="ThumbLeft" x="943.978759765625" y="373.334167480469" z="480.784504050738" />
      <joint name="HandTipRight" x="953.230651855469" y="359.79150390625" z="494.676578410896" />
      <joint name="ThumbRight" x="977.365600585938" y="379.750122070313" z="473.18252382674" />
    </frame>
    <frame>
      <joint name="SpineBase" x="970.783142089844" y="678.8662109375" z="532.087998180868" />
      <joint name="SpineMid" x="974.071716308594" y="500.401123046875" z="550.012764090558" />
      <joint name="Neck" x="977.806335449219" y="338.162658691406" z="564.257355520584" />
      <joint name="Head" x="984.905944824219" y="268.755737304688" z="579.338415893192" />
      <joint name="ShoulderLeft" x="882.67724609375" y="404.141662597656" z="563.025072179224" />
      <joint name="ElbowLeft" x="846.692504882813" y="492.259765625" z="509.937491751733" />
      <joint name="WristLeft" x="900.66015625" y="410.352691650391" z="478.292166677906" />
      <joint name="HandLeft" x="936.108825683594" y="391.404052734375" z="478.215912170661" />
      <joint name="ShoulderRight" x="1062.67053222656" y="425.863128662109" z="551.394536465923" />
      <joint name="ElbowRight" x="1100.9599609375" y="482.272644042969" z="502.58639968911" />
      <joint name="WristRight" x="1008.29162597656" y="384.210510253906" z="490.674447750836" />
      <joint name="HandRight" x="988.529724121094" y="368.558776855469" z="492.546638696258" />
      <joint name="HipLeft" x="934.516174316406" y="676.824279785156" z="523.205874489998" />
      <joint name="KneeLeft" x="900.183288574219" y="893.213073730469" z="497.427189766941" />
      <joint name="AnkleLeft" x="882.388061523438" y="1079.25146484375" z="505.274773186465" />
      <joint name="FootLeft" x="874.298889160156" y="1125.33728027344" z="469.948945374226" />
      <joint name="HipRight" x="1008.33081054688" y="680.872985839844" z="521.383513222578" />
      <joint name="KneeRight" x="1037.22143554688" y="898.799255371094" z="504.777723789692" />
      <joint name="AnkleRight" x="1048.56774902344" y="1091.47033691406" z="510.584883655257" />
      <joint name="FootRight" x="1049.98486328125" y="1137.74108886719" z="475.28987933949" />
      <joint name="SpineShoulder" x="976.850036621094" y="377.281280517578" z="561.302370267807" />
      <joint name="HandTipLeft" x="967.101501464844" y="376.629577636719" z="475.987658960888" />
      <joint name="ThumbLeft" x="933.324279785156" y="378.549285888672" z="479.751867680133" />
      <joint name="HandTipRight" x="953.234741210938" y="360.04736328125" z="494.286377236715" />
      <joint name="ThumbRight" x="976.054870605469" y="379.870056152344" z="473.069077603305" />
    </frame>
    <frame>
      <joint name="SpineBase" x="970.757568359375" y="678.836059570313" z="532.062393998496" />
      <joint name="SpineMid" x="974.07080078125" y="500.221984863281" z="550.036726979188" />
      <joint name="Neck" x="977.777954101563" y="337.636596679688" z="564.419777949275" />
      <joint name="Head" x="984.905517578125" y="268.733703613281" z="579.349707994136" />
      <joint name="ShoulderLeft" x="882.979919433594" y="403.8984375" z="563.029208239453" />
      <joint name="ElbowLeft" x="846.353820800781" y="492.180999755859" z="509.811374740611" />
      <joint name="WristLeft" x="908.86376953125" y="408.404663085938" z="477.182750586059" />
      <joint name="HandLeft" x="946.913757324219" y="387.801391601563" z="479.121578057398" />
      <joint name="ShoulderRight" x="1062.640625" y="425.878936767578" z="551.376941797011" />
      <joint name="ElbowRight" x="1100.37536621094" y="482.338134765625" z="502.63954478047" />
      <joint name="WristRight" x="1008.89007568359" y="384.464721679688" z="490.829188924815" />
      <joint name="HandRight" x="1044.86267089844" y="414.583526611328" z="494.663349583336" />
      <joint name="HipLeft" x="934.481140136719" y="676.75732421875" z="523.175313600525" />
      <joint name="KneeLeft" x="900.228820800781" y="892.928527832031" z="497.378705949807" />
      <joint name="AnkleLeft" x="882.366394042969" y="1079.2890625" z="505.272541026976" />
      <joint name="FootLeft" x="874.282470703125" y="1125.36840820313" z="469.945925393741" />
      <joint name="HipRight" x="1008.31005859375" y="680.870727539063" z="521.36398182705" />
      <joint name="KneeRight" x="1037.22192382813" y="898.81884765625" z="504.776903142821" />
      <joint name="AnkleRight" x="1048.57543945313" y="1091.51428222656" z="510.645184787332" />
      <joint name="FootRight" x="1049.99938964844" y="1137.77355957031" z="475.349097217695" />
      <joint name="SpineShoulder" x="976.834899902344" y="376.869079589844" z="561.419952551471" />
      <joint name="HandTipLeft" x="987.761840820313" y="381.947814941406" z="476.412557084771" />
      <joint name="ThumbLeft" x="949.2568359375" y="364.267822265625" z="488.981781514895" />
      <joint name="HandTipRight" x="1004.21124267578" y="376.257843017578" z="490.173295119708" />
      <joint name="ThumbRight" x="1005.30157470703" y="389.633453369141" z="474.451145411544" />
    </frame>
    <frame>
      <joint name="SpineBase" x="970.750732421875" y="678.800903320313" z="532.042567170094" />
      <joint name="SpineMid" x="974.099853515625" y="500.277099609375" z="550.017720797658" />
      <joint name="Neck" x="977.856384277344" y="337.980163574219" z="564.364170917302" />
      <joint name="Head" x="984.937072753906" y="268.70703125" z="579.356601427852" />
      <joint name="ShoulderLeft" x="882.91357421875" y="403.86279296875" z="563.026450865967" />
      <joint name="ElbowLeft" x="846.064270019531" y="492.167694091797" z="509.743096920952" />
      <joint name="WristLeft" x="908.872741699219" y="408.330169677734" z="477.199820040974" />
      <joint name="HandLeft" x="936.824096679688" y="391.663635253906" z="478.05756015045" />
      <joint name="ShoulderRight" x="1062.65612792969" y="425.915405273438" z="551.359609735097" />
      <joint name="ElbowRight" x="1100.48168945313" y="482.262451171875" z="502.643122800827" />
      <joint name="WristRight" x="1009.02740478516" y="384.543212890625" z="490.901077590707" />
      <joint name="HandRight" x="989.243469238281" y="368.901611328125" z="492.57142223176" />
      <joint name="HipLeft" x="934.468933105469" y="676.731201171875" z="523.150792672023" />
      <joint name="KneeLeft" x="900.228393554688" y="892.92529296875" z="497.376244009194" />
      <joint name="AnkleLeft" x="882.40673828125" y="1080.24877929688" z="505.124135246841" />
      <joint name="FootLeft" x="874.323669433594" y="1126.3974609375" z="469.799981554218" />
      <joint name="HipRight" x="1008.30554199219" y="680.831237792969" z="521.351573646362" />
      <joint name="KneeRight" x="1037.22021484375" y="898.826904296875" z="504.770305141979" />
      <joint name="AnkleRight" x="1048.26647949219" y="1087.89233398438" z="510.724492100937" />
      <joint name="FootRight" x="1049.67565917969" y="1133.93005371094" z="475.416291783485" />
      <joint name="SpineShoulder" x="976.902221679688" y="377.123229980469" z="561.377278914184" />
      <joint name="HandTipLeft" x="970.305419921875" y="377.308837890625" z="476.385836822654" />
      <joint name="ThumbLeft" x="938.645385742188" y="377.077056884766" z="479.250452442006" />
      <joint name="HandTipRight" x="955.522766113281" y="360.292846679688" z="493.624968684635" />
      <joint name="ThumbRight" x="985.786987304688" y="383.095672607422" z="472.909084289352" />
    </frame>
    <frame>
      <joint name="SpineBase" x="970.786437988281" y="679.012939453125" z="531.945632361702" />
      <joint name="SpineMid" x="974.192993164063" y="500.504364013672" z="549.946422997513" />
      <joint name="Neck" x="977.94580078125" y="338.229705810547" z="564.30633172584" />
      <joint name="Head" x="984.944396972656" y="268.680206298828" z="579.348329307393" />
      <joint name="ShoulderLeft" x="894.496459960938" y="408.176940917969" z="559.636982333855" />
      <joint name="ElbowLeft" x="845.944458007813" y="492.311248779297" z="509.663494174473" />
      <joint name="WristLeft" x="908.691467285156" y="408.174774169922" z="477.355939901696" />
      <joint name="HandLeft" x="936.325378417969" y="392.007019042969" z="477.717484087144" />
      <joint name="ShoulderRight" x="1062.68359375" y="426.131042480469" z="551.281681108235" />
      <joint name="ElbowRight" x="1100.66674804688" y="482.907348632813" z="502.610329751866" />
      <joint name="WristRight" x="1009.14715576172" y="384.577178955078" z="490.916210319007" />
      <joint name="HandRight" x="988.924377441406" y="367.930816650391" z="493.051106740745" />
      <joint name="HipLeft" x="934.450134277344" y="676.901977539063" z="523.070106671675" />
      <joint name="KneeLeft" x="900.241516113281" y="892.87890625" z="497.355301101049" />
      <joint name="AnkleLeft" x="882.449951171875" y="1080.10498046875" z="505.088059610395" />
      <joint name="FootLeft" x="873.5205078125" y="1150.8740234375" z="487.256355055867" />
      <joint name="HipRight" x="1008.40325927734" y="681.097839355469" z="521.240884796414" />
      <joint name="KneeRight" x="1037.19250488281" y="898.789306640625" z="504.756813707421" />
      <joint name="AnkleRight" x="1048.46606445313" y="1089.01989746094" z="510.642427413846" />
      <joint name="FootRight" x="1051.19360351563" y="1135.17846679688" z="475.295394086462" />
      <joint name="SpineShoulder" x="976.995727539063" y="377.375061035156" z="561.31779842898" />
      <joint name="HandTipLeft" x="976.794799804688" y="378.990661621094" z="475.989037647631" />
      <joint name="ThumbLeft" x="946.427734375" y="372.875671386719" z="480.509127786735" />
      <joint name="HandTipRight" x="957.156005859375" y="358.548217773438" z="496.056972099518" />
      <joint name="ThumbRight" x="981.150024414063" y="380.817565917969" z="473.153079017012" />
    </frame>
    <frame>
      <joint name="SpineBase" x="970.758850097656" y="679.302490234375" z="531.872102402069" />
      <joint name="SpineMid" x="974.244201660156" y="500.693725585938" z="549.911726047811" />
      <joint name="Neck" x="978.008056640625" y="338.352233886719" z="564.290378350669" />
      <joint name="Head" x="984.943969726563" y="268.677642822266" z="579.344193247164" />
      <joint name="ShoulderLeft" x="894.446228027344" y="408.148742675781" z="559.687140270605" />
      <joint name="ElbowLeft" x="845.822937011719" y="492.409057617188" z="509.66516829409" />
      <joint name="WristLeft" x="908.686340332031" y="408.030548095703" z="477.253227739333" />
      <joint name="HandLeft" x="935.717651367188" y="392.214508056641" z="477.803126794593" />
      <joint name="ShoulderRight" x="1062.513671875" y="428.359619140625" z="550.621060377152" />
      <joint name="ElbowRight" x="1100.80993652344" y="482.945556640625" z="502.660750295614" />
      <joint name="WristRight" x="1009.36267089844" y="384.659423828125" z="490.934921067663" />
      <joint name="HandRight" x="989.544372558594" y="368.585845947266" z="492.805208112345" />
      <joint name="HipLeft" x="934.421142578125" y="677.152221679688" z="522.988895457329" />
      <joint name="KneeLeft" x="900.232360839844" y="893.06298828125" z="497.366330594994" />
      <joint name="AnkleLeft" x="882.447509765625" y="1080.10327148438" z="505.085860276781" />
      <joint name="FootLeft" x="873.530395507813" y="1150.7841796875" z="487.240106247823" />
      <joint name="HipRight" x="1008.36853027344" y="681.439758300781" z="521.179763017468" />
      <joint name="KneeRight" x="1037.18408203125" y="898.758544921875" z="504.746046820474" />
      <joint name="AnkleRight" x="1048.20617675781" y="1088.32421875" z="510.676566323676" />
      <joint name="FootRight" x="1050.68957519531" y="1134.4267578125" z="475.333406449523" />
      <joint name="SpineShoulder" x="977.058166503906" y="377.517700195313" z="561.299087680324" />
      <joint name="HandTipLeft" x="967.569763183594" y="376.9599609375" z="476.217308781244" />
      <joint name="ThumbLeft" x="937.099060058594" y="377.804626464844" z="478.801886862366" />
      <joint name="HandTipRight" x="954.8935546875" y="360.932800292969" z="493.216581975795" />
      <joint name="ThumbRight" x="977.159423828125" y="377.933776855469" z="473.649012334041" />
    </frame>
    <frame>
      <joint name="SpineBase" x="970.652954101563" y="679.284545898438" z="531.846235612697" />
      <joint name="SpineMid" x="974.237060546875" y="500.748260498047" z="549.892457259282" />
      <joint name="Neck" x="978.082092285156" y="338.573638916016" z="564.243831260151" />
      <joint name="Head" x="984.95361328125" y="268.663909912109" z="579.338153286194" />
      <joint name="ShoulderLeft" x="887.718139648438" y="405.229309082031" z="561.534777461649" />
      <joint name="ElbowLeft" x="845.212097167969" y="491.808349609375" z="509.305528009382" />
      <joint name="WristLeft" x="934.787231445313" y="393.602661132813" z="479.550316808637" />
      <joint name="HandLeft" x="939.644226074219" y="390.818664550781" z="478.481900234461" />
      <joint name="ShoulderRight" x="1062.552734375" y="429.05908203125" z="550.294738355403" />
      <joint name="ElbowRight" x="1101.09777832031" y="483.115844726563" z="502.606226517511" />
      <joint name="WristRight" x="1003.88641357422" y="383.05078125" z="489.525640609185" />
      <joint name="HandRight" x="983.686096191406" y="369.266754150391" z="490.939615167765" />
      <joint name="HipLeft" x="934.338012695313" y="677.125427246094" z="522.96161715534" />
      <joint name="KneeLeft" x="900.217651367188" y="893.088073730469" z="497.361931927766" />
      <joint name="AnkleLeft" x="882.490051269531" y="1080.31030273438" z="505.12331459997" />
      <joint name="FootLeft" x="873.524230957031" y="1150.72338867188" z="487.252218995638" />
      <joint name="HipRight" x="1008.22924804688" y="681.43310546875" z="521.15826206945" />
      <joint name="KneeRight" x="1037.20788574219" y="898.857421875" z="504.745784213476" />
      <joint name="AnkleRight" x="1048.37121582031" y="1089.10217285156" z="510.6165277986" />
      <joint name="FootRight" x="1050.056640625" y="1135.22216796875" z="475.301466873307" />
      <joint name="SpineShoulder" x="977.105407714844" y="377.691833496094" z="561.262191397007" />
      <joint name="HandTipLeft" x="975.212890625" y="378.693389892578" z="476.769144563119" />
      <joint name="ThumbLeft" x="947.395080566406" y="371.820373535156" z="482.161319719003" />
      <joint name="HandTipRight" x="950.860656738281" y="359.94287109375" z="493.830918223359" />
      <joint name="ThumbRight" x="965.10400390625" y="375.909088134766" z="473.776475206031" />
    </frame>
    <frame>
      <joint name="SpineBase" x="970.632080078125" y="679.3076171875" z="531.782061027392" />
      <joint name="SpineMid" x="974.270141601563" y="500.899932861328" z="549.809013885448" />
      <joint name="Neck" x="978.150207519531" y="338.927551269531" z="564.116335562287" />
      <joint name="Head" x="984.942016601563" y="268.641510009766" z="579.295217041908" />
      <joint name="ShoulderLeft" x="887.490295410156" y="405.202453613281" z="561.60889828703" />
      <joint name="ElbowLeft" x="845.189270019531" y="491.86669921875" z="509.283501847366" />
      <joint name="WristLeft" x="934.877014160156" y="393.570556640625" z="479.51863983942" />
      <joint name="HandLeft" x="939.549743652344" y="390.344879150391" z="478.038028754922" />
      <joint name="ShoulderRight" x="1062.46374511719" y="429.537994384766" z="550.046640393389" />
      <joint name="ElbowRight" x="1101.07409667969" y="483.09765625" z="502.565456780964" />
      <joint name="WristRight" x="1006.43591308594" y="383.730621337891" z="489.931237118664" />
      <joint name="HandRight" x="986.580688476563" y="368.908660888672" z="491.276933857584" />
      <joint name="HipLeft" x="934.312133789063" y="677.138000488281" z="522.85920042585" />
      <joint name="KneeLeft" x="900.227355957031" y="893.111999511719" z="497.348440493208" />
      <joint name="AnkleLeft" x="882.484375" y="1080.39892578125" z="505.10017235821" />
      <joint name="FootLeft" x="873.431213378906" y="1150.89636230469" z="487.23268760011" />
      <joint name="HipRight" x="1008.20953369141" y="681.461242675781" z="521.125239239365" />
      <joint name="KneeRight" x="1037.2041015625" y="898.988647460938" z="504.70970857703" />
      <joint name="AnkleRight" x="1048.50939941406" y="1089.33422851563" z="510.466185291849" />
      <joint name="FootRight" x="1050.06079101563" y="1135.47607421875" z="475.157164327526" />
      <joint name="SpineShoulder" x="977.166564941406" y="377.995849609375" z="561.147629093828" />
      <joint name="HandTipLeft" x="978.215637207031" y="378.517639160156" z="476.539494742764" />
      <joint name="ThumbLeft" x="946.036254882813" y="371.953857421875" z="482.051714122924" />
      <joint name="HandTipRight" x="953.46875" y="359.765197753906" z="494.280599882744" />
      <joint name="ThumbRight" x="965.003540039063" y="374.345367431641" z="473.778149325647" />
    </frame>
    <frame>
      <joint name="SpineBase" x="970.582092285156" y="679.317626953125" z="531.774084339807" />
      <joint name="SpineMid" x="974.265502929688" y="500.973236083984" z="549.793323117276" />
      <joint name="Neck" x="978.190063476563" y="339.102081298828" z="564.078914064973" />
      <joint name="Head" x="984.940673828125" y="268.634552001953" z="579.294363569162" />
      <joint name="ShoulderLeft" x="886.387939453125" y="404.748229980469" z="561.852597581816" />
      <joint name="ElbowLeft" x="845.856079101563" y="490.664581298828" z="508.87127451117" />
      <joint name="WristLeft" x="914.027038574219" y="408.831481933594" z="475.633270816154" />
      <joint name="HandLeft" x="947.884216308594" y="388.074005126953" z="478.920289792901" />
      <joint name="ShoulderRight" x="1062.48583984375" y="429.728485107422" z="549.992674655158" />
      <joint name="ElbowRight" x="1101.14953613281" y="483.110687255859" z="502.571792174808" />
      <joint name="WristRight" x="1007.48083496094" y="383.993560791016" z="490.232742779037" />
      <joint name="HandRight" x="1039.73620605469" y="408.794708251953" z="494.571666914918" />
      <joint name="HipLeft" x="934.283264160156" y="677.13525390625" z="522.852865032007" />
      <joint name="KneeLeft" x="900.218566894531" y="893.105834960938" z="497.351460473693" />
      <joint name="AnkleLeft" x="882.459838867188" y="1080.39331054688" z="505.114779872512" />
      <joint name="FootLeft" x="873.49951171875" y="1150.72692871094" z="487.327127642014" />
      <joint name="HipRight" x="1008.12524414063" y="681.493530273438" z="521.117525158778" />
      <joint name="KneeRight" x="1037.20959472656" y="898.976318359375" z="504.710824656775" />
      <joint name="AnkleRight" x="1048.3046875" y="1088.60510253906" z="510.56725616047" />
      <joint name="FootRight" x="1049.75866699219" y="1134.69067382813" z="475.259055843019" />
      <joint name="SpineShoulder" x="977.194152832031" y="378.148956298828" z="561.117363637229" />
      <joint name="HandTipLeft" x="989.171936035156" y="381.240905761719" z="477.196767234614" />
      <joint name="ThumbLeft" x="948.493469238281" y="364.426208496094" z="487.462041987592" />
      <joint name="HandTipRight" x="1001.64617919922" y="371.512145996094" z="491.969756771882" />
      <joint name="ThumbRight" x="1005.38116455078" y="387.435485839844" z="474.56127622162" />
    </frame>
    <frame>
      <joint name="SpineBase" x="970.551879882813" y="679.393493652344" z="531.749563411304" />
      <joint name="SpineMid" x="974.306640625" y="501.147247314453" z="549.760267461316" />
      <joint name="Neck" x="978.295532226563" y="339.357727050781" z="564.037881721427" />
      <joint name="Head" x="984.924255371094" y="268.603240966797" z="579.281955388474" />
      <joint name="ShoulderLeft" x="886.367431640625" y="404.759521484375" z="561.876560470446" />
      <joint name="ElbowLeft" x="845.780029296875" y="490.732727050781" z="508.871832551043" />
      <joint name="WristLeft" x="936.472534179688" y="394.141784667969" z="478.870164682026" />
      <joint name="HandLeft" x="939.772827148438" y="390.109313964844" z="478.391038212913" />
      <joint name="ShoulderRight" x="1062.34814453125" y="430.079010009766" z="549.846730815635" />
      <joint name="ElbowRight" x="1101.42126464844" y="483.257476806641" z="502.499378294918" />
      <joint name="WristRight" x="1008.16839599609" y="384.266357421875" z="490.379244658432" />
      <joint name="HandRight" x="987.654357910156" y="368.626068115234" z="492.040791965028" />
      <joint name="HipLeft" x="934.255310058594" y="677.214233398438" z="522.82010480892" />
      <joint name="KneeLeft" x="900.21484375" y="893.099365234375" z="497.338527079007" />
      <joint name="AnkleLeft" x="882.44921875" y="1080.25024414063" z="505.139826015012" />
      <joint name="FootLeft" x="873.506042480469" y="1150.36145019531" z="487.288032025084" />
      <joint name="HipRight" x="1008.08972167969" y="681.569091796875" z="521.102655037477" />
      <joint name="KneeRight" x="1037.21801757813" y="898.998901367188" z="504.703931223059" />
      <joint name="AnkleRight" x="1048.40490722656" y="1089.02575683594" z="510.567518767469" />
      <joint name="FootRight" x="1049.7919921875" y="1135.13098144531" z="475.263191903248" />
      <joint name="SpineShoulder" x="977.285278320313" y="378.392364501953" z="561.07908866717" />
      <joint name="HandTipLeft" x="975.7646484375" y="378.200561523438" z="476.943154525628" />
      <joint name="ThumbLeft" x="948.232727050781" y="370.546203613281" z="482.869537968599" />
      <joint name="HandTipRight" x="953.465270996094" y="359.381225585938" z="494.262151741085" />
      <joint name="ThumbRight" x="978.125915527344" y="379.959655761719" z="473.231828290744" />
    </frame>
    <frame>
      <joint name="SpineBase" x="970.549621582031" y="679.396606445313" z="531.749300804305" />
      <joint name="SpineMid" x="974.312622070313" y="501.197082519531" z="549.749533400244" />
      <joint name="Neck" x="978.295471191406" y="339.451293945313" z="564.004793239592" />
      <joint name="Head" x="984.920349121094" y="268.608306884766" z="579.283596682215" />
      <joint name="ShoulderLeft" x="885.581420898438" y="404.559539794922" z="562.001298794825" />
      <joint name="ElbowLeft" x="845.281127929688" y="490.247100830078" z="508.650717458144" />
      <joint name="WristLeft" x="910.255065917969" y="406.123229980469" z="477.567404187392" />
      <joint name="HandLeft" x="947.8642578125" y="387.339416503906" z="479.298082786394" />
      <joint name="ShoulderRight" x="1062.35510253906" y="430.115234375" z="549.809834532319" />
      <joint name="ElbowRight" x="1101.57641601563" y="483.176696777344" z="502.4729206398" />
      <joint name="WristRight" x="1008.72985839844" y="384.422546386719" z="490.532081931671" />
      <joint name="HandRight" x="1041.87548828125" y="410.919982910156" z="494.12969933612" />
      <joint name="HipLeft" x="934.258605957031" y="677.21728515625" z="522.818726122177" />
      <joint name="KneeLeft" x="900.23974609375" y="893.165283203125" z="497.333274939034" />
      <joint name="AnkleLeft" x="882.476806640625" y="1080.32055664063" z="505.160473490285" />
      <joint name="FootLeft" x="873.51123046875" y="1150.34436035156" z="487.287473985212" />
      <joint name="HipRight" x="1008.07049560547" y="681.578430175781" z="521.105412410964" />
      <joint name="KneeRight" x="1037.22485351563" y="898.93408203125" z="504.692639122116" />
      <joint name="AnkleRight" x="1048.64294433594" y="1089.71545410156" z="510.525928384051" />
      <joint name="FootRight" x="1049.99145507813" y="1135.86450195313" z="475.22573758006" />
      <joint name="SpineShoulder" x="977.28857421875" y="378.479125976563" z="561.053221877798" />
      <joint name="HandTipLeft" x="987.362365722656" y="380.747741699219" z="477.431931801942" />
      <joint name="ThumbLeft" x="949.968688964844" y="364.04736328125" z="488.410118904618" />
      <joint name="HandTipRight" x="1000.38000488281" y="373.592163085938" z="490.350062455702" />
      <joint name="ThumbRight" x="1004.02996826172" y="387.522003173828" z="474.405156360898" />
    </frame>
    <frame>
      <joint name="SpineBase" x="970.542053222656" y="679.398681640625" z="531.745722783948" />
      <joint name="SpineMid" x="974.333312988281" y="501.274139404297" z="549.727769845228" />
      <joint name="Neck" x="978.35400390625" y="339.636352539063" z="563.950039680365" />
      <joint name="Head" x="984.908752441406" y="268.606567382813" z="579.279788880734" />
      <joint name="ShoulderLeft" x="884.687744140625" y="404.319000244141" z="562.281894372927" />
      <joint name="ElbowLeft" x="845.873596191406" y="489.350341796875" z="508.484684183222" />
      <joint name="WristLeft" x="908.81103515625" y="404.362670898438" z="480.251674450393" />
      <joint name="HandLeft" x="937.868469238281" y="389.519226074219" z="478.546895466637" />
      <joint name="ShoulderRight" x="1062.42932128906" y="430.228332519531" z="549.783934917073" />
      <joint name="ElbowRight" x="1101.75329589844" y="483.256408691406" z="502.468817405446" />